HEADER
"PSFversion" "1.00"
"Log Generator" "drlLog rev. 1.0"
"Log Time Stamp" "Wed Dec 13 18:37:03 2023"
"simulator" "spectre"
"version" "16.1.0.673.isr14"
"date" "6:37:03 PM, Wed Dec 13, 2023"
"design" "(no title)"
"signalNameType" "spectre"
"simMode" "APS"
"measdgt" 0
"ingold" 2
"sst2usecolon" 0
TYPE
"analysisInst" STRUCT(
"analysisType" STRING *
"dataFile" STRING *
"format" STRING *
"parent" STRING *
"sweepVariable" ARRAY ( * ) STRING *
"description" STRING *
)
VALUE
"tran-tran" "analysisInst" (
"tran"
"tran.tran.tran"
"PSF"
""
("time")
"Transient Analysis `tran': time = (0 s -> 5 us)"
) PROP(
"data_type" "swept_scalar"
)

END
