HEADER
"PSFversion" "1.00"
"design" "(\"\" \"netlist\" \"schematic\" \"\")"
"simulator" "spectre"
"temperature" "27"
"host" ""
"date" "Dec 13 18:37:02 2023"
"title" ""
"analysisList" "()"
END
