HEADER
"PSFversion" "1.00"
"Time Stamp" "Dec 13 18:37:02 2023"
TYPE
"variable" STRUCT(
"value" FLOAT DOUBLE
) PROP( "key" "element" )
VALUE
"gl_STO" "variable" ( 1 ) PROP( )
"gl_RV" "variable" ( 0 ) PROP( )
"gl_T" "variable" ( 300 ) PROP( )
"gl_Temp_var" "variable" ( 0 ) PROP( )
"RV_dev" "variable" ( 0 ) PROP( )
"sim_time" "variable" ( 150e-3 ) PROP( )
"spike_duration" "variable" ( 10e-3 ) PROP( )
"mem_vth" "variable" ( 12e-3 ) PROP( )
"temp" "variable" ( 27 ) PROP( )
END
